<?xml version="1.0" encoding="UTF-8"?>

<!-- generated on 2022-08-18 18:05:35 by Eclipse SUMO GUI Version 1.14.1
<configuration xmlns:xsi="http://www.w3.org/2001/XMLSchema-instance" xsi:noNamespaceSchemaLocation="http://sumo.dlr.de/xsd/sumoConfiguration.xsd">

    <input>
        <net-file value="ITSC2020_CAV_impact/workspace/M50network.net.xml"/>
        <additional-files value="ITSC2020_CAV_impact/workspace/vtypes.add.xml,ITSC2020_CAV_impact/workspace/M50_routes.rou.xml,ITSC2020_CAV_impact/workspace/M50_detectors.poi.xml,ITSC2020_CAV_impact/workspace/outputs.add.xml"/>
    </input>

    <output>
        <full-output value="fulloutput.xml"/>
        <tripinfo-output value="tripinfo.xml"/>
        <tripinfo-output.write-unfinished value="true"/>
        <statistic-output value="statistic.xml"/>
    </output>

    <time>
        <begin value="0"/>
        <end value="86400"/>
        <step-length value="0.5"/>
    </time>

    <processing>
        <collision.mingap-factor value="0"/>
        <emergencydecel.warning-threshold value="5"/>
    </processing>

    <ssm_device>
        <device.ssm.probability value="1"/>
        <device.ssm.deterministic value="true"/>
        <device.ssm.measures value="TTC PET"/>
        <device.ssm.thresholds value="1.5 2"/>
        <device.ssm.trajectories value="false"/>
        <device.ssm.range value="50"/>
        <device.ssm.extratime value="5"/>
        <device.ssm.file value="output/ssm.out.xml"/>
        <device.ssm.geo value="true"/>
    </ssm_device>

    <traci_server>
        <remote-port value="51720"/>
    </traci_server>

    <gui_only>
        <delay value="1000"/>
    </gui_only>

</configuration>
-->

<tripinfos xmlns:xsi="http://www.w3.org/2001/XMLSchema-instance" xsi:noNamespaceSchemaLocation="http://sumo.dlr.de/xsd/tripinfo_file.xsd">
    <tripinfo id="camera73S" depart="31.00" departLane="106130759.791_2" departPos="379.47" departSpeed="0.00" departDelay="0.00"
              arrival="34.50" arrivalLane="106130759.791_2" arrivalPos="394.23" arrivalSpeed="9.10" duration="3.50" routeLength="14.76"
              waitingTime="0.00" waitingCount="0" stopTime="0.00" timeLoss="2.71" rerouteNo="0" devices="tripinfo_camera73S ssm_camera73S"
              vType="DEFAULT_VEHTYPE" speedFactor="0.83" vaporized=""/>
    <tripinfo id="camera186S" depart="79.50" departLane="106130759.791_2" departPos="376.49" departSpeed="0.00" departDelay="0.00" arrival="83.00" arrivalLane="106130759.791_2" arrivalPos="394.23" arrivalSpeed="9.10" duration="3.50" routeLength="17.74" waitingTime="0.00" waitingCount="0" stopTime="0.00" timeLoss="2.77" rerouteNo="0" devices="tripinfo_camera186S ssm_camera186S" vType="DEFAULT_VEHTYPE" speedFactor="0.90" vaporized=""/>
    <tripinfo id="camera215S" depart="92.00" departLane="61047111-AddedOnRampEdge_4" departPos="82.84" departSpeed="0.00" departDelay="0.00" arrival="94.50" arrivalLane="61047111-AddedOnRampEdge_4" arrivalPos="92.24" arrivalSpeed="6.50" duration="2.50" routeLength="9.40" waitingTime="0.00" waitingCount="0" stopTime="0.00" timeLoss="2.18" rerouteNo="1" devices="tripinfo_camera215S ssm_camera215S" vType="DEFAULT_VEHTYPE" speedFactor="1.10" vaporized=""/>
    <tripinfo id="camera202N" depart="86.50" departLane="4937552#0_2" departPos="757.97" departSpeed="0.00" departDelay="0.00" arrival="95.50" arrivalLane="4937552#0_2" arrivalPos="858.06" arrivalSpeed="16.69" duration="9.00" routeLength="100.09" waitingTime="0.00" waitingCount="0" stopTime="0.00" timeLoss="5.90" rerouteNo="1" devices="tripinfo_camera202N ssm_camera202N" vType="DEFAULT_VEHTYPE" speedFactor="1.17" vaporized=""/>
    <tripinfo id="camera251S" depart="108.00" departLane="106130759.2098_2" departPos="317.90" departSpeed="0.00" departDelay="0.00" arrival="112.00" arrivalLane="106130759.2098_2" arrivalPos="338.73" arrivalSpeed="10.40" duration="4.00" routeLength="20.83" waitingTime="0.00" waitingCount="0" stopTime="0.00" timeLoss="3.10" rerouteNo="0" devices="tripinfo_camera251S ssm_camera251S" vType="DEFAULT_VEHTYPE" speedFactor="0.94" vaporized=""/>
    <tripinfo id="camera240S" depart="103.00" departLane=":61047111-AddedOnRampNode_0_4" departPos="4.83" departSpeed="0.00" departDelay="0.00" arrival="112.50" arrivalLane="61047111_3" arrivalPos="112.25" arrivalSpeed="24.70" duration="9.50" routeLength="115.93" waitingTime="0.00" waitingCount="0" stopTime="0.00" timeLoss="5.12" rerouteNo="1" devices="tripinfo_camera240S ssm_camera240S" vType="DEFAULT_VEHTYPE" speedFactor="1.02" vaporized=""/>
    <tripinfo id="N4-W2.9296CAV2" depart="0.00" departLane="319144060_2" departPos="53.19" departSpeed="0.00" departDelay="0.00" arrival="127.00" arrivalLane="491989399#1-AddedOnRampEdge.925_0" arrivalPos="393.57" arrivalSpeed="23.53" duration="127.00" routeLength="2513.48" waitingTime="0.00" waitingCount="0" stopTime="0.00" timeLoss="4.44" rerouteNo="0" devices="tripinfo_N4-W2.9296CAV2 ssm_N4-W2.9296CAV2" vType="CAV2" speedFactor="1.06" vaporized=""/>
    <tripinfo id="camera276N" depart="119.00" departLane="4937552#0_2" departPos="765.54" departSpeed="0.00" departDelay="0.00" arrival="128.00" arrivalLane="4937552#0_2" arrivalPos="858.06" arrivalSpeed="15.73" duration="9.00" routeLength="92.52" waitingTime="0.00" waitingCount="0" stopTime="0.00" timeLoss="5.56" rerouteNo="1" devices="tripinfo_camera276N ssm_camera276N" vType="DEFAULT_VEHTYPE" speedFactor="1.02" vaporized=""/>
    <tripinfo id="camera293S" depart="126.50" departLane="106130759.791_2" departPos="387.82" departSpeed="0.00" departDelay="0.00" arrival="128.50" arrivalLane="106130759.791_2" arrivalPos="394.23" arrivalSpeed="5.20" duration="2.00" routeLength="6.41" waitingTime="0.00" waitingCount="0" stopTime="0.00" timeLoss="1.76" rerouteNo="0" devices="tripinfo_camera293S ssm_camera293S" vType="DEFAULT_VEHTYPE" speedFactor="0.98" vaporized=""/>
    <tripinfo id="camera283S" depart="122.00" departLane="106130759.2098_2" departPos="275.39" departSpeed="0.00" departDelay="0.00" arrival="129.00" arrivalLane="106130759.2098_2" arrivalPos="338.73" arrivalSpeed="18.20" duration="7.00" routeLength="63.34" waitingTime="0.00" waitingCount="0" stopTime="0.00" timeLoss="4.48" rerouteNo="3" devices="tripinfo_camera283S ssm_camera283S" vType="DEFAULT_VEHTYPE" speedFactor="0.97" vaporized=""/>
    <tripinfo id="camera286S" depart="123.50" departLane="61047111_3" departPos="4.40" departSpeed="0.00" departDelay="0.00" arrival="132.50" arrivalLane="61047111_3" arrivalPos="112.25" arrivalSpeed="23.40" duration="9.00" routeLength="107.85" waitingTime="0.00" waitingCount="0" stopTime="0.00" timeLoss="5.21" rerouteNo="1" devices="tripinfo_camera286S ssm_camera286S" vType="DEFAULT_VEHTYPE" speedFactor="1.06" vaporized=""/>
    <tripinfo id="camera296S" depart="128.00" departLane="61047111_2" departPos="74.89" departSpeed="0.00" departDelay="0.00" arrival="133.50" arrivalLane="61047111_2" arrivalPos="112.25" arrivalSpeed="14.30" duration="5.50" routeLength="37.36" waitingTime="0.00" waitingCount="0" stopTime="0.00" timeLoss="3.93" rerouteNo="1" devices="tripinfo_camera296S ssm_camera296S" vType="DEFAULT_VEHTYPE" speedFactor="0.98" vaporized=""/>
    <tripinfo id="camera294N" depart="127.00" departLane="4937552#0_1" departPos="795.80" departSpeed="0.00" departDelay="0.00" arrival="134.00" arrivalLane="4937552#0_1" arrivalPos="858.06" arrivalSpeed="16.66" duration="7.00" routeLength="62.26" waitingTime="0.00" waitingCount="0" stopTime="0.00" timeLoss="4.65" rerouteNo="3" devices="tripinfo_camera294N ssm_camera294N" vType="DEFAULT_VEHTYPE" speedFactor="1.03" vaporized=""/>
    <tripinfo id="NRA_000000001070_Eastbound-3.12924CAV2" depart="4.00" departLane="293596618#1-AddedOffRampEdge_0" departPos="74.04" departSpeed="0.00" departDelay="0.00" arrival="135.00" arrivalLane="615002705#1_0" arrivalPos="622.13" arrivalSpeed="15.63" duration="131.00" routeLength="2100.75" waitingTime="0.00" waitingCount="0" stopTime="0.00" timeLoss="5.31" rerouteNo="0" devices="tripinfo_NRA_000000001070_Eastbound-3.12924CAV2 ssm_NRA_000000001070_Eastbound-3.12924CAV2" vType="CAV2" speedFactor="0.94" vaporized=""/>
    <tripinfo id="camera304S" depart="131.50" departLane="106130759.2098_2" departPos="308.69" departSpeed="0.00" departDelay="0.00" arrival="136.50" arrivalLane="106130759.2098_2" arrivalPos="338.73" arrivalSpeed="13.00" duration="5.00" routeLength="30.04" waitingTime="0.00" waitingCount="0" stopTime="0.00" timeLoss="3.76" rerouteNo="1" devices="tripinfo_camera304S ssm_camera304S" vType="DEFAULT_VEHTYPE" speedFactor="1.03" vaporized=""/>
    <tripinfo id="camera322S" depart="139.50" departLane="61047111-AddedOnRampEdge_4" departPos="81.61" departSpeed="0.00" departDelay="0.00" arrival="142.50" arrivalLane="61047111-AddedOnRampEdge_4" arrivalPos="92.24" arrivalSpeed="7.80" duration="3.00" routeLength="10.63" waitingTime="0.00" waitingCount="0" stopTime="0.00" timeLoss="2.50" rerouteNo="1" devices="tripinfo_camera322S ssm_camera322S" vType="DEFAULT_VEHTYPE" speedFactor="0.98" vaporized=""/>
    <tripinfo id="camera319N" depart="138.00" departLane="4937552#0_1" departPos="827.78" departSpeed="0.00" departDelay="0.00" arrival="143.00" arrivalLane="4937552#0_1" arrivalPos="858.06" arrivalSpeed="13.00" duration="5.00" routeLength="30.28" waitingTime="0.00" waitingCount="0" stopTime="0.00" timeLoss="3.73" rerouteNo="1" devices="tripinfo_camera319N ssm_camera319N" vType="DEFAULT_VEHTYPE" speedFactor="1.02" vaporized=""/>
    <tripinfo id="N7-W2.10692CAV4" depart="41.00" departLane="457424511#3_2" departPos="207.00" departSpeed="0.00" departDelay="0.00" arrival="143.50" arrivalLane="345616204#1.655_0" arrivalPos="379.47" arrivalSpeed="31.44" duration="102.50" routeLength="2246.07" waitingTime="0.00" waitingCount="0" stopTime="0.00" timeLoss="7.57" rerouteNo="0" devices="tripinfo_N7-W2.10692CAV4 ssm_N7-W2.10692CAV4" vType="CAV4" speedFactor="1.13" vaporized=""/>
    <tripinfo id="NRA_000000001508_Southbound-3.13717CAV4" depart="0.50" departLane="106130759_2" departPos="580.83" departSpeed="0.00" departDelay="0.00" arrival="144.00" arrivalLane="621521116#0_0" arrivalPos="269.50" arrivalSpeed="15.64" duration="143.50" routeLength="3475.49" waitingTime="0.00" waitingCount="0" stopTime="0.00" timeLoss="12.69" rerouteNo="1" devices="tripinfo_NRA_000000001508_Southbound-3.13717CAV4 ssm_NRA_000000001508_Southbound-3.13717CAV4" vType="CAV4" speedFactor="0.94" vaporized=""/>
    <tripinfo id="NRA_000000020047_Eastbound-1.13631CAV2" depart="2.50" departLane="48516117.389_3" departPos="26.01" departSpeed="0.00" departDelay="0.00" arrival="148.00" arrivalLane="621521116#0_0" arrivalPos="269.50" arrivalSpeed="13.85" duration="145.50" routeLength="2681.13" waitingTime="0.00" waitingCount="0" stopTime="0.00" timeLoss="5.02" rerouteNo="0" devices="tripinfo_NRA_000000020047_Eastbound-1.13631CAV2 ssm_NRA_000000020047_Eastbound-1.13631CAV2" vType="CAV2" speedFactor="0.83" vaporized=""/>
    <tripinfo id="camera331S" depart="143.50" departLane="106130759.791_3" departPos="359.80" departSpeed="0.00" departDelay="0.00" arrival="148.50" arrivalLane="106130759.791_3" arrivalPos="394.23" arrivalSpeed="13.00" duration="5.00" routeLength="34.43" waitingTime="0.00" waitingCount="0" stopTime="0.00" timeLoss="3.77" rerouteNo="0" devices="tripinfo_camera331S ssm_camera331S" vType="DEFAULT_VEHTYPE" speedFactor="1.04" vaporized=""/>
    <tripinfo id="camera339S" depart="147.00" departLane="106130759.2098_2" departPos="307.31" departSpeed="0.00" departDelay="0.00" arrival="152.00" arrivalLane="106130759.2098_2" arrivalPos="338.73" arrivalSpeed="13.00" duration="5.00" routeLength="31.42" waitingTime="0.00" waitingCount="0" stopTime="0.00" timeLoss="3.46" rerouteNo="0" devices="tripinfo_camera339S ssm_camera339S" vType="DEFAULT_VEHTYPE" speedFactor="0.83" vaporized=""/>
    <tripinfo id="camera332N" depart="144.00" departLane="4937552#0_2" departPos="768.60" departSpeed="0.00" departDelay="0.00" arrival="152.50" arrivalLane="4937552#0_2" arrivalPos="858.06" arrivalSpeed="15.83" duration="8.50" routeLength="89.46" waitingTime="0.00" waitingCount="0" stopTime="0.00" timeLoss="5.27" rerouteNo="3" devices="tripinfo_camera332N ssm_camera332N" vType="DEFAULT_VEHTYPE" speedFactor="1.01" vaporized=""/>
    <tripinfo id="camera340S" depart="147.50" departLane="61047111_3" departPos="12.35" departSpeed="0.00" departDelay="0.00" arrival="156.50" arrivalLane="61047111_3" arrivalPos="112.25" arrivalSpeed="23.40" duration="9.00" routeLength="99.90" waitingTime="0.00" waitingCount="0" stopTime="0.00" timeLoss="4.66" rerouteNo="3" devices="tripinfo_camera340S ssm_camera340S" vType="DEFAULT_VEHTYPE" speedFactor="0.92" vaporized=""/>
    <tripinfo id="camera349N" depart="151.50" departLane="4414080#0.187_2" departPos="392.84" departSpeed="0.00" departDelay="0.00" arrival="159.00" arrivalLane="4414080#0.187_2" arrivalPos="469.48" arrivalSpeed="17.73" duration="7.50" routeLength="76.64" waitingTime="0.00" waitingCount="0" stopTime="0.00" timeLoss="4.98" rerouteNo="1" devices="tripinfo_camera349N ssm_camera349N" vType="DEFAULT_VEHTYPE" speedFactor="1.10" vaporized=""/>
    <tripinfo id="camera379S" depart="165.00" departLane="106130759.791_2" departPos="381.69" departSpeed="0.00" departDelay="0.00" arrival="168.00" arrivalLane="106130759.791_2" arrivalPos="394.23" arrivalSpeed="7.80" duration="3.00" routeLength="12.54" waitingTime="0.00" waitingCount="0" stopTime="0.00" timeLoss="2.54" rerouteNo="0" devices="tripinfo_camera379S ssm_camera379S" vType="DEFAULT_VEHTYPE" speedFactor="1.06" vaporized=""/>
    <tripinfo id="camera375S" depart="163.00" departLane="61047111_2" departPos="74.31" departSpeed="0.00" departDelay="0.00" arrival="168.50" arrivalLane="61047111_2" arrivalPos="112.25" arrivalSpeed="14.30" duration="5.50" routeLength="37.94" waitingTime="0.00" waitingCount="0" stopTime="0.00" timeLoss="3.98" rerouteNo="1" devices="tripinfo_camera375S ssm_camera375S" vType="DEFAULT_VEHTYPE" speedFactor="1.01" vaporized=""/>
    <tripinfo id="camera377N" depart="164.00" departLane="4937552#0_1" departPos="799.63" departSpeed="0.00" departDelay="0.00" arrival="170.50" arrivalLane="4937552#0_1" arrivalPos="858.06" arrivalSpeed="16.90" duration="6.50" routeLength="58.43" waitingTime="0.00" waitingCount="0" stopTime="0.00" timeLoss="4.44" rerouteNo="1" devices="tripinfo_camera377N ssm_camera377N" vType="DEFAULT_VEHTYPE" speedFactor="1.03" vaporized=""/>
    <tripinfo id="NRA_000000001070_Eastbound-4.7883CAV2" depart="73.00" departLane="293596618#1-AddedOffRampEdge_0" departPos="460.86" departSpeed="0.00" departDelay="0.00" arrival="175.50" arrivalLane="615002705#1_0" arrivalPos="622.13" arrivalSpeed="17.30" duration="102.50" routeLength="1713.93" waitingTime="0.00" waitingCount="0" stopTime="0.00" timeLoss="5.48" rerouteNo="0" devices="tripinfo_NRA_000000001070_Eastbound-4.7883CAV2 ssm_NRA_000000001070_Eastbound-4.7883CAV2" vType="CAV2" speedFactor="1.04" vaporized=""/>
    <tripinfo id="camera399S" depart="173.50" departLane="16403446_1" departPos="18.53" departSpeed="0.00" departDelay="0.00" arrival="182.00" arrivalLane="16403446_1" arrivalPos="109.97" arrivalSpeed="16.82" duration="8.50" routeLength="91.44" waitingTime="0.00" waitingCount="0" stopTime="0.00" timeLoss="2.99" rerouteNo="1" devices="tripinfo_camera399S ssm_camera399S" vType="DEFAULT_VEHTYPE" speedFactor="1.01" vaporized=""/>
    <tripinfo id="camera408S" depart="178.00" departLane="106130759.791_3" departPos="363.48" departSpeed="0.00" departDelay="0.00" arrival="183.00" arrivalLane="106130759.791_3" arrivalPos="394.23" arrivalSpeed="13.00" duration="5.00" routeLength="30.75" waitingTime="0.00" waitingCount="0" stopTime="0.00" timeLoss="3.60" rerouteNo="0" devices="tripinfo_camera408S ssm_camera408S" vType="DEFAULT_VEHTYPE" speedFactor="0.92" vaporized=""/>
    <tripinfo id="camera416S" depart="181.50" departLane="106130759.2098_3" departPos="251.89" departSpeed="0.00" departDelay="0.00" arrival="189.50" arrivalLane="106130759.2098_3" arrivalPos="338.73" arrivalSpeed="20.80" duration="8.00" routeLength="86.84" waitingTime="0.00" waitingCount="0" stopTime="0.00" timeLoss="4.83" rerouteNo="3" devices="tripinfo_camera416S ssm_camera416S" vType="DEFAULT_VEHTYPE" speedFactor="1.00" vaporized=""/>
    <tripinfo id="camera425S" depart="185.50" departLane="16403446_0" departPos="37.79" departSpeed="0.00" departDelay="0.00" arrival="193.00" arrivalLane="16403446_0" arrivalPos="109.97" arrivalSpeed="17.85" duration="7.50" routeLength="72.18" waitingTime="0.00" waitingCount="0" stopTime="0.00" timeLoss="3.19" rerouteNo="1" devices="tripinfo_camera425S ssm_camera425S" vType="DEFAULT_VEHTYPE" speedFactor="1.07" vaporized=""/>
    <tripinfo id="camera265S" depart="114.00" departLane="106130759.2098_3" departPos="250.23" departSpeed="0.00" departDelay="0.00" arrival="194.50" arrivalLane="621521116#0_0" arrivalPos="269.50" arrivalSpeed="15.25" duration="80.50" routeLength="1651.63" waitingTime="0.00" waitingCount="0" stopTime="0.00" timeLoss="4.81" rerouteNo="2" devices="tripinfo_camera265S ssm_camera265S" vType="DEFAULT_VEHTYPE" speedFactor="0.91" vaporized=""/>
    <tripinfo id="camera445S" depart="194.50" departLane="106130759.2098_2" departPos="313.95" departSpeed="0.00" departDelay="0.00" arrival="199.00" arrivalLane="106130759.2098_2" arrivalPos="338.73" arrivalSpeed="11.70" duration="4.50" routeLength="24.78" waitingTime="0.00" waitingCount="0" stopTime="0.00" timeLoss="3.51" rerouteNo="2" devices="tripinfo_camera445S ssm_camera445S" vType="DEFAULT_VEHTYPE" speedFactor="1.06" vaporized=""/>
    <tripinfo id="camera447S" depart="195.50" departLane="61047111-AddedOnRampEdge_4" departPos="71.35" departSpeed="0.00" departDelay="0.00" arrival="199.50" arrivalLane="61047111-AddedOnRampEdge_4" arrivalPos="92.24" arrivalSpeed="10.40" duration="4.00" routeLength="20.89" waitingTime="0.00" waitingCount="0" stopTime="0.00" timeLoss="3.18" rerouteNo="1" devices="tripinfo_camera447S ssm_camera447S" vType="DEFAULT_VEHTYPE" speedFactor="1.03" vaporized=""/>
    <tripinfo id="camera444N" depart="194.00" departLane="4937552#0_1" departPos="803.08" departSpeed="0.00" departDelay="0.00" arrival="200.50" arrivalLane="4937552#0_1" arrivalPos="858.06" arrivalSpeed="14.12" duration="6.50" routeLength="54.98" waitingTime="0.00" waitingCount="0" stopTime="0.00" timeLoss="4.50" rerouteNo="1" devices="tripinfo_camera444N ssm_camera444N" vType="DEFAULT_VEHTYPE" speedFactor="1.02" vaporized=""/>
    <tripinfo id="camera443S" depart="193.50" departLane="16403446_1" departPos="13.18" departSpeed="0.00" departDelay="0.00" arrival="202.50" arrivalLane="16403446_1" arrivalPos="109.97" arrivalSpeed="17.19" duration="9.00" routeLength="96.79" waitingTime="0.00" waitingCount="0" stopTime="0.00" timeLoss="3.06" rerouteNo="1" devices="tripinfo_camera443S ssm_camera443S" vType="DEFAULT_VEHTYPE" speedFactor="1.03" vaporized=""/>
    <tripinfo id="camera455S" depart="199.00" departLane="106130759.791_3" departPos="358.80" departSpeed="0.00" departDelay="0.00" arrival="204.00" arrivalLane="106130759.791_3" arrivalPos="394.23" arrivalSpeed="13.00" duration="5.00" routeLength="35.43" waitingTime="0.00" waitingCount="0" stopTime="0.00" timeLoss="3.72" rerouteNo="0" devices="tripinfo_camera455S ssm_camera455S" vType="DEFAULT_VEHTYPE" speedFactor="1.01" vaporized=""/>
    <tripinfo id="camera456N" depart="199.50" departLane=":gneJ1_1_2" departPos="3.96" departSpeed="0.00" departDelay="0.00" arrival="206.00" arrivalLane="4414080#0.756_3" arrivalPos="47.86" arrivalSpeed="15.79" duration="6.50" routeLength="55.74" waitingTime="0.00" waitingCount="0" stopTime="0.00" timeLoss="4.46" rerouteNo="1" devices="tripinfo_camera456N ssm_camera456N" vType="DEFAULT_VEHTYPE" speedFactor="1.03" vaporized=""/>
    <tripinfo id="NRA_000000001070_Eastbound-3.12938CAV4" depart="116.00" departLane="261187938-AddedOffRampEdge_2" departPos="94.61" departSpeed="0.00" departDelay="0.00" arrival="214.50" arrivalLane="615002705#1_0" arrivalPos="622.13" arrivalSpeed="17.04" duration="98.50" routeLength="1550.68" waitingTime="0.00" waitingCount="0" stopTime="0.00" timeLoss="7.38" rerouteNo="0" devices="tripinfo_NRA_000000001070_Eastbound-3.12938CAV4 ssm_NRA_000000001070_Eastbound-3.12938CAV4" vType="CAV4" speedFactor="1.02" vaporized=""/>
    <tripinfo id="camera479N" depart="209.50" departLane="4414080#0.187_2" departPos="437.16" departSpeed="0.00" departDelay="0.00" arrival="214.50" arrivalLane="4414080#0.187_2" arrivalPos="469.48" arrivalSpeed="13.00" duration="5.00" routeLength="32.32" waitingTime="0.00" waitingCount="0" stopTime="0.00" timeLoss="3.73" rerouteNo="1" devices="tripinfo_camera479N ssm_camera479N" vType="DEFAULT_VEHTYPE" speedFactor="1.02" vaporized=""/>
    <tripinfo id="camera473S" depart="207.00" departLane="61047111_3" departPos="4.03" departSpeed="0.00" departDelay="0.00" arrival="216.00" arrivalLane="61047111_3" arrivalPos="112.25" arrivalSpeed="23.40" duration="9.00" routeLength="108.22" waitingTime="0.00" waitingCount="0" stopTime="0.00" timeLoss="5.74" rerouteNo="1" devices="tripinfo_camera473S ssm_camera473S" vType="DEFAULT_VEHTYPE" speedFactor="1.23" vaporized=""/>
    <tripinfo id="camera478N" depart="209.00" departLane="4937552#0_2" departPos="767.57" departSpeed="0.00" departDelay="0.00" arrival="218.00" arrivalLane="4937552#0_2" arrivalPos="858.06" arrivalSpeed="14.78" duration="9.00" routeLength="90.49" waitingTime="0.00" waitingCount="0" stopTime="0.00" timeLoss="5.96" rerouteNo="1" devices="tripinfo_camera478N ssm_camera478N" vType="DEFAULT_VEHTYPE" speedFactor="1.12" vaporized=""/>
    <tripinfo id="camera504N" depart="221.00" departLane="4414080#0.187_2" departPos="469.45" departSpeed="0.00" departDelay="0.00" arrival="221.50" arrivalLane="4414080#0.187_2" arrivalPos="469.48" arrivalSpeed="1.30" duration="0.50" routeLength="0.03" waitingTime="0.00" waitingCount="0" stopTime="0.00" timeLoss="0.47" rerouteNo="1" devices="tripinfo_camera504N ssm_camera504N" vType="DEFAULT_VEHTYPE" speedFactor="0.73" vaporized=""/>
    <tripinfo id="NRA_000000001508_Southbound-4.14013CAV2" depart="97.50" departLane="106130759_0" departPos="452.84" departSpeed="0.00" departDelay="0.00" arrival="222.50" arrivalLane="621521116#0_0" arrivalPos="269.50" arrivalSpeed="18.05" duration="125.00" routeLength="3942.21" waitingTime="0.00" waitingCount="0" stopTime="0.00" timeLoss="15.14" rerouteNo="2" devices="tripinfo_NRA_000000001508_Southbound-4.14013CAV2 ssm_NRA_000000001508_Southbound-4.14013CAV2" vType="CAV2" speedFactor="1.08" vaporized=""/>
    <tripinfo id="camera492S" depart="215.50" departLane="61047111_2" departPos="45.07" departSpeed="0.00" departDelay="0.00" arrival="222.50" arrivalLane="61047111_2" arrivalPos="112.25" arrivalSpeed="18.20" duration="7.00" routeLength="67.18" waitingTime="0.00" waitingCount="0" stopTime="0.00" timeLoss="4.42" rerouteNo="1" devices="tripinfo_camera492S ssm_camera492S" vType="DEFAULT_VEHTYPE" speedFactor="0.95" vaporized=""/>
    <tripinfo id="camera510S" depart="224.00" departLane="61047111_2" departPos="61.34" departSpeed="0.00" departDelay="0.00" arrival="230.50" arrivalLane="61047111_2" arrivalPos="112.25" arrivalSpeed="16.90" duration="6.50" routeLength="50.91" waitingTime="0.00" waitingCount="0" stopTime="0.00" timeLoss="4.63" rerouteNo="1" devices="tripinfo_camera510S ssm_camera510S" vType="DEFAULT_VEHTYPE" speedFactor="1.14" vaporized=""/>
    <tripinfo id="camera502N" depart="220.00" departLane="4937552#0_2" departPos="739.06" departSpeed="0.00" departDelay="0.00" arrival="231.00" arrivalLane="4937552#0_1" arrivalPos="858.06" arrivalSpeed="14.24" duration="11.00" routeLength="119.00" waitingTime="0.00" waitingCount="0" stopTime="0.00" timeLoss="6.34" rerouteNo="1" devices="tripinfo_camera502N ssm_camera502N" vType="DEFAULT_VEHTYPE" speedFactor="0.94" vaporized=""/>
    <tripinfo id="camera522S" depart="229.00" departLane="106130759.791_3" departPos="365.68" departSpeed="0.00" departDelay="0.00" arrival="233.50" arrivalLane="106130759.791_3" arrivalPos="394.23" arrivalSpeed="11.70" duration="4.50" routeLength="28.55" waitingTime="0.00" waitingCount="0" stopTime="0.00" timeLoss="3.49" rerouteNo="0" devices="tripinfo_camera522S ssm_camera522S" vType="DEFAULT_VEHTYPE" speedFactor="1.04" vaporized=""/>
    <tripinfo id="camera533S" depart="234.00" departLane="106130759.2098_2" departPos="318.77" departSpeed="0.00" departDelay="0.00" arrival="238.00" arrivalLane="106130759.2098_2" arrivalPos="338.73" arrivalSpeed="10.40" duration="4.00" routeLength="19.96" waitingTime="0.00" waitingCount="0" stopTime="0.00" timeLoss="3.29" rerouteNo="1" devices="tripinfo_camera533S ssm_camera533S" vType="DEFAULT_VEHTYPE" speedFactor="1.18" vaporized=""/>
    <tripinfo id="camera539S" depart="237.00" departLane="106130759.791_2" departPos="386.96" departSpeed="0.00" departDelay="0.00" arrival="239.50" arrivalLane="106130759.791_2" arrivalPos="394.23" arrivalSpeed="6.50" duration="2.50" routeLength="7.27" waitingTime="0.00" waitingCount="0" stopTime="0.00" timeLoss="2.11" rerouteNo="0" devices="tripinfo_camera539S ssm_camera539S" vType="DEFAULT_VEHTYPE" speedFactor="0.91" vaporized=""/>
    <tripinfo id="NRA_000000001508_Southbound-3.13717CAV4" depart="160.50" departLane="106130759.2098_1" departPos="237.98" departSpeed="0.00" departDelay="0.00" arrival="241.50" arrivalLane="621521116#0_0" arrivalPos="269.50" arrivalSpeed="15.88" duration="81.00" routeLength="2002.61" waitingTime="0.00" waitingCount="0" stopTime="0.00" timeLoss="7.28" rerouteNo="4" devices="tripinfo_NRA_000000001508_Southbound-3.13717CAV4 ssm_NRA_000000001508_Southbound-3.13717CAV4" vType="CAV4" speedFactor="0.95" vaporized=""/>
    <tripinfo id="camera395S" depart="172.00" departLane="106130759.2098_3" departPos="217.50" departSpeed="0.00" departDelay="0.00" arrival="243.00" arrivalLane="621521116#0_0" arrivalPos="269.50" arrivalSpeed="18.31" duration="71.00" routeLength="1684.36" waitingTime="0.00" waitingCount="0" stopTime="0.00" timeLoss="7.36" rerouteNo="2" devices="tripinfo_camera395S ssm_camera395S" vType="DEFAULT_VEHTYPE" speedFactor="1.10" vaporized=""/>
    <tripinfo id="camera540N" depart="237.50" departLane="4937552#0_1" departPos="799.59" departSpeed="0.00" departDelay="0.00" arrival="244.50" arrivalLane="4937552#0_1" arrivalPos="858.06" arrivalSpeed="14.49" duration="7.00" routeLength="58.47" waitingTime="0.00" waitingCount="0" stopTime="0.00" timeLoss="4.96" rerouteNo="1" devices="tripinfo_camera540N ssm_camera540N" vType="DEFAULT_VEHTYPE" speedFactor="1.14" vaporized=""/>
    <tripinfo id="NRA_000000001070_Eastbound-2.13197CAV2" depart="149.50" departLane="261187938-AddedOffRampEdge_2" departPos="65.80" departSpeed="0.00" departDelay="0.00" arrival="247.00" arrivalLane="615002705#1_0" arrivalPos="622.13" arrivalSpeed="16.84" duration="97.50" routeLength="1579.49" waitingTime="0.00" waitingCount="0" stopTime="0.00" timeLoss="4.13" rerouteNo="0" devices="tripinfo_NRA_000000001070_Eastbound-2.13197CAV2 ssm_NRA_000000001070_Eastbound-2.13197CAV2" vType="CAV2" speedFactor="1.01" vaporized=""/>
    <tripinfo id="camera552S" depart="243.00" departLane="61047111-AddedOnRampEdge_4" departPos="69.41" departSpeed="0.00" departDelay="0.00" arrival="247.00" arrivalLane="61047111-AddedOnRampEdge_4" arrivalPos="92.24" arrivalSpeed="10.40" duration="4.00" routeLength="22.83" waitingTime="0.00" waitingCount="0" stopTime="0.00" timeLoss="3.25" rerouteNo="1" devices="tripinfo_camera552S ssm_camera552S" vType="DEFAULT_VEHTYPE" speedFactor="1.13" vaporized=""/>
    <tripinfo id="camera555S" depart="244.00" departLane="106130759.791_2" departPos="372.90" departSpeed="0.00" departDelay="0.00" arrival="248.00" arrivalLane="106130759.791_2" arrivalPos="394.23" arrivalSpeed="10.40" duration="4.00" routeLength="21.33" waitingTime="0.00" waitingCount="0" stopTime="0.00" timeLoss="3.20" rerouteNo="0" devices="tripinfo_camera555S ssm_camera555S" vType="DEFAULT_VEHTYPE" speedFactor="1.05" vaporized=""/>
    <tripinfo id="camera557N" depart="245.00" departLane="4937552#0_1" departPos="807.52" departSpeed="0.00" departDelay="0.00" arrival="251.00" arrivalLane="4937552#0_1" arrivalPos="858.06" arrivalSpeed="15.14" duration="6.00" routeLength="50.54" waitingTime="0.00" waitingCount="0" stopTime="0.00" timeLoss="4.01" rerouteNo="1" devices="tripinfo_camera557N ssm_camera557N" vType="DEFAULT_VEHTYPE" speedFactor="0.91" vaporized=""/>
    <tripinfo id="camera570S" depart="250.50" departLane="106130759.2098_2" departPos="314.79" departSpeed="0.00" departDelay="0.00" arrival="255.00" arrivalLane="106130759.2098_2" arrivalPos="338.73" arrivalSpeed="11.70" duration="4.50" routeLength="23.94" waitingTime="0.00" waitingCount="0" stopTime="0.00" timeLoss="3.43" rerouteNo="3" devices="tripinfo_camera570S ssm_camera570S" vType="DEFAULT_VEHTYPE" speedFactor="0.98" vaporized=""/>
    <tripinfo id="camera572S" depart="251.50" departLane="61047111_3" departPos="1.34" departSpeed="0.00" departDelay="0.00" arrival="260.50" arrivalLane="61047111_3" arrivalPos="112.25" arrivalSpeed="23.40" duration="9.00" routeLength="110.91" waitingTime="0.00" waitingCount="0" stopTime="0.00" timeLoss="4.74" rerouteNo="1" devices="tripinfo_camera572S ssm_camera572S" vType="DEFAULT_VEHTYPE" speedFactor="0.94" vaporized=""/>
    <tripinfo id="camera578N" depart="254.00" departLane="4937552#0_1" departPos="788.15" departSpeed="0.00" departDelay="0.00" arrival="261.50" arrivalLane="4937552#0_1" arrivalPos="858.06" arrivalSpeed="16.22" duration="7.50" routeLength="69.91" waitingTime="0.00" waitingCount="0" stopTime="0.00" timeLoss="4.49" rerouteNo="1" devices="tripinfo_camera578N ssm_camera578N" vType="DEFAULT_VEHTYPE" speedFactor="0.90" vaporized=""/>